# vtk DataFile Version 3.0
d-2__ created by libgimli-v1.5.0-1-g5991b6ac
ASCII
DATASET UNSTRUCTURED_GRID
POINTS 33660 double
-20.065779306145	0	0
-20.065779306145	-20	0
1090.0657793061	-20	0
1090.0657793061	123.26	0
-4300.0657793061	0	0
-4300.0657793061	-4300	0
5370.0657793061	123.26	0
5370.0657793061	-4176.74	0
0	0	0
3	0.24351330798479	0
7	0.56819771863118	0
10	0.81171102661597	0
13	1.2931046012223	0
17	1.9349627006973	0
20	2.4163562753036	0
23	2.6188143778758	0
27	2.8887585146386	0
30	3.0912166172107	0
33	3.2012576621982	0
37	3.347979055515	0
40	3.4580201005025	0
43	3.4189474036851	0
47	3.3668504745952	0
50	3.3277777777778	0
53	3.2225435524722	0
57	3.0822312520648	0
60	2.9769970267592	0
63	2.9331115596542	0
67	2.8745976035142	0
70	2.8307121364092	0
73	2.6977026996907	0
77	2.5203567840659	0
80	2.3873473473473	0
83	2.4390526908818	0
87	2.5079931489278	0
90	2.5596984924623	0
93	3.0825554368702	0
97	3.7796980294141	0
100	4.302554973822	0
103	5.0873802155464	0
107	6.1338138711789	0
110	6.9186391129032	0
113	7.2584227559167	0
117	7.711467613268	0
120	8.0512512562814	0
123	8.1221055276382	0
127	8.2165778894472	0
130	8.287432160804	0
133	8.3303529731565	0
137	8.3875807229597	0
140	8.4305015353122	0
143	8.5172634834777	0
147	8.6329460810316	0
150	8.7197080291971	0
153	9.1351673018539	0
157	9.6891129987296	0
160	10.104572271386	0
163	10.304554608282	0
167	10.571197724142	0
170	10.771180061038	0
173	10.907469755301	0
177	11.089189347653	0
180	11.225479041916	0
183	11.14968001872	0
187	11.048614654459	0
190	10.972815631263	0
193	10.959072181553	0
197	10.940747581941	0
200	10.927004132231	0
203	11.436552738082	0
207	12.115950879216	0
210	12.625499485067	0
213	13.001789579487	0
217	13.50350970538	0
220	13.8797997998	0
223	14.094715281547	0
227	14.381269257209	0
230	14.596184738956	0
233	14.944751004016	0
237	15.409506024096	0
240	15.758072289157	0
243	15.968777746708	0
247	16.249718356777	0
250	16.460423814329	0
253	16.650484107717	0
257	16.903897832235	0
260	17.093958125623	0
263	17.259376748542	0
267	17.479934912434	0
270	17.645353535354	0
273	17.777220366314	0
277	17.953042807594	0
280	18.084909638554	0
283	18.183270583846	0
287	18.314418510902	0
290	18.412779456193	0
293	18.561229710244	0
297	18.759163382313	0
300	18.907613636364	0
303	19.131732871858	0
307	19.430558519184	0
310	19.654677754678	0
313	19.927024428274	0
317	20.290153326403	0
320	20.5625	0
323	20.938787336024	0
327	21.440503784057	0
330	21.816791120081	0
333	22.104874629978	0
337	22.488985976508	0
340	22.777069486405	0
343	22.980063098315	0
347	23.250721247528	0
350	23.453714859438	0
353	23.798265035753	0
357	24.257665270839	0
360	24.602215447154	0
363	24.952496758954	0
367	25.41953850802	0
370	25.76981981982	0
373	26.02299737985	0
377	26.36056745989	0
380	26.61374501992	0
383	26.967143967394	0
387	27.438342564026	0
390	27.791741511501	0
393	28.168637052427	0
397	28.671164440329	0
400	29.048059981256	0
403	29.29900644471	0
407	29.633601729317	0
410	29.884548192771	0
413	30.125774239391	0
417	30.447408968217	0
420	30.688635014837	0
423	30.956798325238	0
427	31.314349405774	0
430	31.582512716175	0
433	31.964981462298	0
437	32.474939790462	0
440	32.857408536585	0
443	33.189598450459	0
447	33.632518335623	0
450	33.964708249497	0
453	34.180474774648	0
457	34.468163474849	0
460	34.68393	0
463	35.026080648241	0
467	35.482281512563	0
470	35.824432160804	0
473	36.127925450189	0
477	36.532583169368	0
480	36.836076458753	0
483	37.147371415864	0
487	37.562431358678	0
490	37.873726315789	0
493	38.208551249538	0
497	38.654984494536	0
500	38.989809428285	0
503	39.287989201079	0
507	39.685562231471	0
510	39.983742004264	0
513	40.345468969041	0
517	40.827771588743	0
520	41.18949855352	0
523	41.587894460301	0
527	42.119089002676	0
530	42.517484909457	0
533	42.891163907919	0
537	43.389402572535	0
540	43.763081570997	0
543	44.181055058882	0
547	44.738353042728	0
550	45.156326530612	0
553	45.575249240122	0
557	46.133812852801	0
560	46.55273556231	0
563	46.854513463586	0
567	47.256883998622	0
570	47.558661899898	0
573	47.959710036515	0
577	48.494440885339	0
580	48.895489021956	0
583	49.175112984661	0
587	49.547944934933	0
590	49.827568897638	0
593	50.148657778908	0
597	50.576776287269	0
600	50.897865168539	0
603	51.371997553461	0
607	52.004174066691	0
610	52.478306451613	0
613	53.031681319408	0
617	53.769514476467	0
620	54.322889344262	0
623	54.816318459351	0
627	55.474223946136	0
630	55.967653061224	0
633	56.380333046472	0
637	56.930573026801	0
640	57.343253012048	0
643	57.739879931014	0
647	58.268715822969	0
650	58.665342741935	0
653	59.164885130477	0
657	59.830941648533	0
660	60.330484037075	0
663	60.778235733169	0
667	61.375237994628	0
670	61.822989690722	0
673	62.212651133606	0
677	62.732199724118	0
680	63.121861167002	0
683	63.505160965795	0
687	64.016227364185	0
690	64.399527162978	0
693	64.856504616179	0
697	65.465807887113	0
700	65.922785340314	0
703	66.399854500125	0
707	67.035946713205	0
710	67.513015873016	0
713	67.870441756272	0
717	68.347009600614	0
720	68.704435483871	0
723	68.983187750742	0
727	69.354857439903	0
730	69.633609706775	0
733	70.044587217703	0
737	70.592557232274	0
740	71.003534743202	0
743	71.40362743029	0
747	71.937084346406	0
750	72.337177033493	0
753	72.758946753027	0
757	73.321306379072	0
760	73.743076098607	0
763	74.006986438799	0
767	74.358866892389	0
770	74.622777232581	0
773	75.141725942001	0
777	75.833657554562	0
780	76.352606263982	0
783	76.82788706285	0
787	77.461594794674	0
790	77.936875593542	0
793	78.340952733109	0
797	78.879722252531	0
800	79.283799392097	0
803	79.603463791336	0
807	80.02968299032	0
810	80.349347389558	0
813	80.780808782205	0
817	81.356090639068	0
820	81.787552031715	0
823	82.125767903682	0
827	82.576722399638	0
830	82.914938271605	0
833	83.13100517722	0
837	83.419094384707	0
840	83.635161290323	0
843	83.89944963792	0
847	84.251834101382	0
850	84.51612244898	0
853	84.769143421796	0
857	85.106504718884	0
860	85.3595256917	0
863	85.496816209659	0
867	85.679870233606	0
870	85.817160751566	0
873	86.175890574877	0
877	86.654197005958	0
880	87.012926829268	0
883	87.267985617274	0
887	87.608064001282	0
890	87.863122789288	0
893	88.111733198585	0
897	88.443213744315	0
900	88.691824153613	0
903	88.753074478379	0
907	88.834741578068	0
910	88.895991902834	0
913	88.830775040645	0
917	88.743819224394	0
920	88.678602362205	0
923	88.977371051134	0
927	89.375729303039	0
930	89.674497991968	0
933	89.969668837292	0
937	90.363229964392	0
940	90.658400809717	0
943	90.162061645133	0
947	89.500276092355	0
950	89.003936927772	0
953	89.405810413974	0
957	89.941641728909	0
960	90.34351521511	0
963	91.175340520707	0
967	92.284440928169	0
970	93.116266233766	0
973	94.305938087774	0
977	95.892167226452	0
980	97.08183908046	0
983	97.890972865058	0
987	98.969817911188	0
990	99.778951695786	0
993	100.17916372803	0
997	100.71277977103	0
1000	101.11299180328	0
1003	101.7730315485	0
1007	102.65308454212	0
1010	103.31312428734	0
1013	104.67008068885	0
1017	106.47935589085	0
1020	107.83631229236	0
1023	109.25903696748	0
1027	111.15600320098	0
1030	112.57872787611	0
1033	114.00056526549	0
1037	115.89634845133	0
1040	117.31818584071	0
1043	118.73956065328	0
1047	120.63472707004	0
1050	122.05610188261	0
1053	122.41727131783	0
1057	122.89883056478	0
1060	123.26	0
1063	123.26	0
1067	123.26	0
1070	123.26	0
535	-20	0
812.53288965307	-20	0
257.46711034693	-20	0
118.70066552039	-20	0
49.317443107123	-20	0
14.625831900489	-20	0
673.76644482654	-20	0
396.23355517346	-20	0
188.08388793366	-20	0
84.009054313757	-20	0
326.8503327602	-20	0
1.352507211626	-3.0790077862495	0
11.865853674029	-3.4924762778623	0
92.406892901907	-0.87623335409691	0
68.679108775108	-0.91789529670856	0
78.175090324983	-1.1271215441813	0
29.003585733467	-0.96896429218588	0
48.489077652438	0.0014979672861851	0
109.33391272128	2.9152836493892	0
121.55260993625	4.2265528280304	0
161.77299557746	6.7183214654651	0
152.05995163259	5.1249350338428	0
181.54600131887	8.2649487825405	0
218.12163296808	6.0883151007328	0
221.74079241867	10.68699332313	0
248.57075829695	12.769038529626	0
261.7975068816	12.917839540105	0
278.26662476431	14.339894961548	0
298.42115966815	14.897138873547	0
328.47934381936	18.277091957712	0
349.56263402132	19.102727746345	0
368.41508839849	22.005419662212	0
388.00713378203	23.874812963923	0
408.66413045306	26.38046840321	0
442.53426487665	29.671892909942	0
453.22785283664	27.107993130398	0
492.04977563474	34.121994086132	0
512.26936024274	37.243030650304	0
528.06055432294	38.329239637673	0
568.99245667888	43.714302248532	0
548.19257839482	41.230592809175	0
568.81725442476	36.939711823866	0
642.22432570044	53.652389840515	0
661.87728828419	56.707663829634	0
688.59673358946	60.813782378758	0
722.09588935739	64.857621979386	0
762.4515465134	70.780992118693	0
789.31499721962	74.03954630065	0
868.42648893764	81.788596045021	0
822.23145416171	78.156816780637	0
901.43530841755	84.732373649954	0
915.21150678906	79.775052640591	0
197.99741789617	6.8793022188695	0
960.91448768215	83.513015715863	0
924.65237759503	86.298692611908	0
982.53660446506	94.618721213727	0
1012.8894975198	100.43993972655	0
1040.6903372462	113.36419323801	0
1052.5992644017	118.59540932226	0
7.9791788370793	-2.5877650234459	0
18.937688063897	-1.7790962019862	0
88.560582815975	-0.60412000261774	0
99.034929271591	0.082844130687568	0
71.684762994573	0.23086276350358	0
61.587661397812	-1.5239488792399	0
81.698183267503	-0.61759921242262	0
32.540183609248	0.28602040420969	0
41.551253203668	-0.52298831856835	0
51.431577462801	1.007336634589	0
112.23249617801	4.5622530681469	0
128.17177692258	4.7559351060046	0
118.33495884161	5.2047305257457	0
158.7072318991	7.3776406059468	0
139.0096589154	4.4290095091162	0
169.33097641922	7.0313265674387	0
153.39227672703	-20	0
178.36426223453	8.4173162885661	0
189.10708914342	7.0655501966496	0
228.19879377518	12.143822074737	0
238.37754497699	11.819570007882	0
231.16839060494	10.469946879065	0
252.14758033705	13.604694286049	0
268.32569401807	14.056999002501	0
[...]
CELL_DATA 66548
SCALARS Marker double 1
LOOKUP_TABLE default
0 0 0 0 -1 -1 -1 -1 1 1 1 1 2 2 2 2 3 3 3 3 -1 -1 -1 -1 4 4 4 4 5 5 5 5 6 6 6 6 7 7 7 7 8 8 8 8 9 9 9 9 10 10 10 10 11 11 11 11 12 12 12 12 13 13 13 13 14 14 14 14 15 15 15 15 16 16 16 16 17 17 17 17 18 18 18 18 19 19 19 19 20 20 20 20 21 21 21 21 22 22 22 22 23 23 23 23 24 24 24 24 25 25 25 25 26 26 26 26 27 27 27 27 28 28 28 28 29 29 29 29 30 30 30 30 31 31 31 31 32 32 32 32 33 33 33 33 34 34 34 34 35 35 35 35 36 36 36 36 37 37 37 37 38 38 38 38 39 39 39 39 40 40 40 40 41 41 41 41 42 42 42 42 43 43 43 43 44 44 44 44 45 45 45 45 46 46 46 46 47 47 47 47 48 48 48 48 49 49 49 49 50 50 50 50 51 51 51 51 52 52 52 52 53 53 53 53 54 54 54 54 55 55 55 55 56 56 56 56 57 57 57 57 58 58 58 58 59 59 59 59 60 60 60 60 61 61 61 61 62 62 62 62 63 63 63 63 64 64 64 64 65 65 65 65 66 66 66 66 67 67 67 67 68 68 68 68 69 69 69 69 70 70 70 70 71 71 71 71 72 72 72 72 73 73 73 73 74 74 74 74 -1 -1 -1 -1 75 75 75 75 76 76 76 76 77 77 77 77 78 78 78 78 79 79 79 79 80 80 80 80 81 81 81 81 82 82 82 82 83 83 83 83 84 84 84 84 85 85 85 85 86 86 86 86 87 87 87 87 88 88 88 88 89 89 89 89 90 90 90 90 91 91 91 91 92 92 92 92 93 93 93 93 94 94 94 94 95 95 95 95 96 96 96 96 97 97 97 97 98 98 98 98 99 99 99 99 100 100 100 100 101 101 101 101 102 102 102 102 103 103 103 103 104 104 104 104 105 105 105 105 106 106 106 106 107 107 107 107 108 108 108 108 109 109 109 109 110 110 110 110 111 111 111 111 112 112 112 112 113 113 113 113 114 114 114 114 115 115 115 115 116 116 116 116 117 117 117 117 118 118 118 118 119 119 119 119 120 120 120 120 121 121 121 121 122 122 122 122 123 123 123 123 124 124 124 124 125 125 125 125 126 126 126 126 127 127 127 127 128 128 128 128 129 129 129 129 130 130 130 130 131 131 131 131 132 132 132 132 133 133 133 133 134 134 134 134 135 135 135 135 136 136 136 136 137 137 137 137 138 138 138 138 139 139 139 139 140 140 140 140 141 141 141 141 142 142 142 142 143 143 143 143 144 144 144 144 145 145 145 145 146 146 146 146 147 147 147 147 148 148 148 148 149 149 149 149 150 150 150 150 151 151 151 151 152 152 152 152 153 153 153 153 154 154 154 154 155 155 155 155 156 156 156 156 157 157 157 157 158 158 158 158 159 159 159 159 160 160 160 160 161 161 161 161 162 162 162 162 163 163 163 163 164 164 164 164 165 165 165 165 166 166 166 166 167 167 167 167 168 168 168 168 169 169 169 169 170 170 170 170 171 171 171 171 172 172 172 172 173 173 173 173 174 174 174 174 175 175 175 175 176 176 176 176 177 177 177 177 178 178 178 178 179 179 179 179 180 180 180 180 181 181 181 181 182 182 182 182 183 183 183 183 184 184 184 184 185 185 185 185 186 186 186 186 187 187 187 187 188 188 188 188 189 189 189 189 190 190 190 190 191 191 191 191 192 192 192 192 193 193 193 193 194 194 194 194 195 195 195 195 196 196 196 196 197 197 197 197 198 198 198 198 199 199 199 199 200 200 200 200 201 201 201 201 202 202 202 202 203 203 203 203 204 204 204 204 205 205 205 205 206 206 206 206 207 207 207 207 208 208 208 208 209 209 209 209 210 210 210 210 211 211 211 211 212 212 212 212 213 213 213 213 214 214 214 214 215 215 215 215 216 216 216 216 217 217 217 217 218 218 218 218 219 219 219 219 220 220 220 220 221 221 221 221 222 222 222 222 223 223 223 223 224 224 224 224 225 225 225 225 226 226 226 226 227 227 227 227 228 228 228 228 229 229 229 229 230 230 230 230 231 231 231 231 232 232 232 232 233 233 233 233 234 234 234 234 235 235 235 235 236 236 236 236 237 237 237 237 238 238 238 238 239 239 239 239 240 240 240 240 241 241 241 241 242 242 242 242 243 243 243 243 244 244 244 244 245 245 245 245 246 246 246 246 247 247 247 247 248 248 248 248 249 249 249 249 250 250 250 250 251 251 251 251 252 252 252 252 253 253 253 253 254 254 254 254 255 255 255 255 256 256 256 256 257 257 257 257 258 258 258 258 259 259 259 259 260 260 260 260 261 261 261 261 262 262 262 262 263 263 263 263 264 264 264 264 265 265 265 265 266 266 266 266 267 267 267 267 268 268 268 268 269 269 269 269 270 270 270 270 271 271 271 271 272 272 272 272 273 273 273 273 274 274 274 274 275 275 275 275 276 276 276 276 277 277 277 277 278 278 278 278 279 279 279 279 280 280 280 280 281 281 281 281 -1 -1 -1 -1 282 282 282 282 283 283 283 283 284 284 284 284 285 285 285 285 286 286 286 286 287 287 287 287 288 288 288 288 289 289 289 289 290 290 290 290 291 291 291 291 292 292 292 292 293 293 293 293 294 294 294 294 295 295 295 295 296 296 296 296 297 297 297 297 298 298 298 298 299 299 299 299 300 300 300 300 301 301 301 301 302 302 302 302 303 303 303 303 304 304 304 304 305 305 305 305 306 306 306 306 307 307 307 307 308 308 308 308 309 309 309 309 310 310 310 310 311 311 311 311 312 312 312 312 313 313 313 313 314 314 314 314 315 315 315 315 316 316 316 316 317 317 317 317 318 318 318 318 319 319 319 319 320 320 320 320 321 321 321 321 -1 -1 -1 -1 322 322 322 322 323 323 323 323 324 324 324 324 325 325 325 325 326 326 326 326 327 327 327 327 328 328 328 328 329 329 329 329 330 330 330 330 331 331 331 331 332 332 332 332 333 333 333 333 334 334 334 334 335 335 335 335 336 336 336 336 337 337 337 337 338 338 338 338 339 339 339 339 340 340 340 340 341 341 341 341 342 342 342 342 343 343 343 343 344 344 344 344 345 345 345 345 346 346 346 346 347 347 347 347 348 348 348 348 349 349 349 349 350 350 350 350 351 351 351 351 352 352 352 352 353 353 353 353 354 354 354 354 355 355 355 355 356 356 356 356 357 357 357 357 358 358 358 358 359 359 359 359 360 360 360 360 361 361 361 361 362 362 362 362 363 363 363 363 364 364 364 364 365 365 365 365 366 366 366 366 367 367 367 367 368 368 368 368 369 369 369 369 370 370 370 370 371 371 371 371 372 372 372 372 373 373 373 373 374 374 374 374 375 375 375 375 376 376 376 376 377 377 377 377 378 378 378 378 379 379 379 379 380 380 380 380 381 381 381 381 382 382 382 382 383 383 383 383 384 384 384 384 385 385 385 385 386 386 386 386 387 387 387 387 388 388 388 388 389 389 389 389 390 390 390 390 391 391 391 391 392 392 392 392 393 393 393 393 394 394 394 394 395 395 395 395 396 396 396 396 397 397 397 397 398 398 398 398 399 399 399 399 400 400 400 400 401 401 401 401 402 402 402 402 403 403 403 403 404 404 404 404 405 405 405 405 406 406 406 406 407 407 407 407 408 408 408 408 409 409 409 409 410 410 410 410 411 411 411 411 412 412 412 412 413 413 413 413 414 414 414 414 415 415 415 415 416 416 416 416 417 417 417 417 418 418 418 418 419 419 419 419 420 420 420 420 421 421 421 421 422 422 422 422 423 423 423 423 424 424 424 424 -1 -1 -1 -1 425 425 425 425 426 426 426 426 427 427 427 427 428 428 428 428 429 429 429 429 430 430 430 430 431 431 431 431 432 432 432 432 433 433 433 433 434 434 434 434 435 435 435 435 436 436 436 436 437 437 437 437 438 438 438 438 439 439 439 439 440 440 440 440 441 441 441 441 442 442 442 442 443 443 443 443 444 444 444 444 445 445 445 445 446 446 446 446 447 447 447 447 448 448 448 448 449 449 449 449 450 450 450 450 451 451 451 451 452 452 452 452 453 453 453 453 454 454 454 454 455 455 455 455 456 456 456 456 457 457 457 457 458 458 458 458 459 459 459 459 460 460 460 460 461 461 461 461 462 462 462 462 463 463 463 463 464 464 464 464 465 465 465 465 466 466 466 466 467 467 467 467 468 468 468 468 469 469 469 469 470 470 470 470 471 471 471 471 472 472 472 472 473 473 473 473 474 474 474 474 475 475 475 475 476 476 476 476 477 477 477 477 478 478 478 478 479 479 479 479 480 480 480 480 481 481 481 481 -1 -1 -1 -1 482 482 482 482 483 483 483 483 484 484 484 484 485 485 485 485 486 486 486 486 487 487 487 487 488 488 488 488 489 489 489 489 490 490 490 490 491 491 491 491 492 492 492 492 493 493 493 493 494 494 494 494 495 495 495 495 496 496 496 496 497 497 497 497 498 498 498 498 499 499 499 499 500 500 500 500 501 501 501 501 502 502 502 502 503 503 503 503 504 504 504 504 505 505 505 505 506 506 506 506 507 507 507 507 508 508 508 508 509 509 509 509 510 510 510 510 511 511 511 511 512 512 512 512 513 513 513 513 514 514 514 514 515 515 515 515 516 516 516 516 517 517 517 517 518 518 518 518 519 519 519 519 520 520 520 520 521 521 521 521 522 522 522 522 523 523 523 523 524 524 524 524 525 525 525 525 526 526 526 526 527 527 527 527 528 528 528 528 529 529 529 529 530 530 530 530 531 531 531 531 532 532 532 532 533 533 533 533 534 534 534 534 535 535 535 535 536 536 536 536 537 537 537 537 538 538 538 538 539 539 539 539 540 540 540 540 541 541 541 541 542 542 542 542 543 543 543 543 544 544 544 544 545 545 545 545 546 546 546 546 547 547 547 547 548 548 548 548 549 549 549 549 550 550 550 550 551 551 551 551 552 552 552 552 553 553 553 553 554 554 554 554 555 555 555 555 556 556 556 556 557 557 557 557 558 558 558 558 559 559 559 559 560 560 560 560 561 561 561 561 562 562 562 562 -1 -1 -1 -1 563 563 563 563 564 564 564 564 565 565 565 565 566 566 566 566 -1 -1 -1 -1 567 567 567 567 -1 -1 -1 -1 -1 -1 -1 -1 568 568 568 568 569 569 569 569 570 570 570 570 571 571 571 571 572 572 572 572 573 573 573 573 -1 -1 -1 -1 574 574 574 574 575 575 575 575 576 576 576 576 577 577 577 577 578 578 578 578 579 579 579 579 580 580 580 580 581 581 581 581 582 582 582 582 583 583 583 583 -1 -1 -1 -1 584 584 584 584 585 585 585 585 586 586 586 586 -1 -1 -1 -1 587 587 587 587 588 588 588 588 -1 -1 -1 -1 589 589 589 589 590 590 590 590 591 591 591 591 592 592 592 592 593 593 593 593 594 594 594 594 595 595 595 595 596 596 596 596 597 597 597 597 598 598 598 598 599 599 599 599 600 600 600 600 601 601 601 601 -1 -1 -1 -1 -1 -1 -1 -1 602 602 602 602 603 603 603 603 604 604 604 604 605 605 605 605 606 606 606 606 607 607 607 607 608 608 608 608 609 609 609 609 610 610 610 610 -1 -1 -1 -1 611 611 611 611 612 612 612 612 613 613 613 613 614 614 614 614 615 615 615 615 616 616 616 616 617 617 617 617 618 618 618 618 619 619 619 619 620 620 620 620 621 621 621 621 622 622 622 622 623 623 623 623 624 624 624 624 625 625 625 625 626 626 626 626 -1 -1 -1 -1 627 627 627 627 628 628 628 628 629 629 629 629 -1 -1 -1 -1 630 630 630 630 631 631 631 631 -1 -1 -1 -1 632 632 632 632 633 633 633 633 634 634 634 634 635 635 635 635 636 636 636 636 637 637 637 637 638 638 638 638 639 639 639 639 640 640 640 640 641 641 641 641 642 642 642 642 643 643 643 643 644 644 644 644 645 645 645 645 646 646 646 646 647 647 647 647 648 648 648 648 649 649 649 649 650 650 650 650 651 651 651 651 652 652 652 652 653 653 653 653 654 654 654 654 655 655 655 655 656 656 656 656 657 657 657 657 658 658 658 658 659 659 659 659 660 660 660 660 661 661 661 661 662 662 662 662 663 663 663 663 664 664 664 664 665 665 665 665 666 666 666 666 667 667 667 667 668 668 668 668 669 669 669 669 670 670 670 670 671 671 671 671 672 672 672 672 673 673 673 673 674 674 674 674 675 675 675 675 676 676 676 676 677 677 677 677 678 678 678 678 679 679 679 679 680 680 680 680 681 681 681 681 682 682 682 682 683 683 683 683 684 684 684 684 685 685 685 685 686 686 686 686 687 687 687 687 688 688 688 688 689 689 689 689 690 690 690 690 691 691 691 691 692 692 692 692 693 693 693 693 694 694 694 694 695 695 695 695 696 696 696 696 697 697 697 697 698 698 698 698 699 699 699 699 700 700 700 700 701 701 701 701 702 702 702 702 703 703 703 703 704 704 704 704 705 705 705 705 706 706 706 706 707 707 707 707 708 708 708 708 709 709 709 709 710 710 710 710 711 711 711 711 712 712 712 712 713 713 713 713 714 714 714 714 715 715 715 715 716 716 716 716 717 717 717 717 718 718 718 718 719 719 719 719 720 720 720 720 721 721 721 721 722 722 722 722 723 723 723 723 724 724 724 724 725 725 725 725 726 726 726 726 727 727 727 727 728 728 728 728 729 729 729 729 730 730 730 730 731 731 731 731 732 732 732 732 733 733 733 733 734 734 734 734 735 735 735 735 736 736 736 736 737 737 737 737 738 738 738 738 739 739 739 739 740 740 740 740 741 741 741 741 742 742 742 742 743 743 743 743 744 744 744 744 745 745 745 745 746 746 746 746 747 747 747 747 748 748 748 748 749 749 749 749 750 750 750 750 751 751 751 751 752 752 752 752 753 753 753 753 754 754 754 754 755 755 755 755 756 756 756 756 757 757 757 757 758 758 758 758 759 759 759 759 760 760 760 760 761 761 761 761 762 762 762 762 763 763 763 763 764 764 764 764 765 765 765 765 766 766 766 766 767 767 767 767 768 768 768 768 769 769 769 769 770 770 770 770 771 771 771 771 772 772 772 772 773 773 773 773 774 774 774 774 775 775 775 775 776 776 776 776 777 777 777 777 778 778 778 778 779 779 779 779 780 780 780 780 781 781 781 781 782 782 782 782 783 783 783 783 784 784 784 784 785 785 785 785 786 786 786 786 787 787 787 787 788 788 788 788 789 789 789 789 790 790 790 790 791 791 791 791 792 792 792 792 793 793 793 793 794 794 794 794 795 795 795 795 796 796 796 796 797 797 797 797 798 798 798 798 799 799 799 799 800 800 800 800 801 801 801 801 802 802 802 802 803 803 803 803 804 804 804 804 805 805 805 805 806 806 806 806 807 807 807 807 808 808 808 808 809 809 809 809 810 810 810 810 811 811 811 811 812 812 812 812 813 813 813 813 814 814 814 814 815 815 815 815 816 816 816 816 817 817 817 817 818 818 818 818 819 819 819 819 820 820 820 820 821 821 821 821 822 822 822 822 823 823 823 823 824 824 824 824 825 825 825 825 826 826 826 826 827 827 827 827 828 828 828 828 829 829 829 829 830 830 830 830 831 831 831 831 832 832 832 832 833 833 833 833 834 834 834 834 835 835 835 835 836 836 836 836 837 837 837 837 838 838 838 838 839 839 839 839 840 840 840 840 841 841 841 841 842 842 842 842 843 843 843 843 844 844 844 844 845 845 845 845 846 846 846 846 847 847 847 847 848 848 848 848 849 849 849 849 -1 -1 -1 -1 850 850 850 850 851 851 851 851 852 852 852 852 853 853 853 853 854 854 854 854 855 855 855 855 856 856 856 856 857 857 857 857 858 858 858 858 859 859 859 859 860 860 860 860 861 861 861 861 862 862 862 862 863 863 863 863 864 864 864 864 865 865 865 865 866 866 866 866 867 867 867 867 868 868 868 868 869 869 869 869 870 870 870 870 871 871 871 871 872 872 872 872 873 873 873 873 874 874 874 874 875 875 875 875 876 876 876 876 877 877 877 877 878 878 878 878 879 879 879 879 880 880 880 880 881 881 881 881 882 882 882 882 883 883 883 883 884 884 884 884 885 885 885 885 886 886 886 886 887 887 887 887 888 888 888 888 889 889 889 889 890 890 890 890 891 891 891 891 892 892 892 892 893 893 893 893 894 894 894 894 895 895 895 895 896 896 896 896 897 897 897 897 898 898 898 898 899 899 899 899 900 900 900 900 901 901 901 901 902 902 902 902 903 903 903 903 904 904 904 904 905 905 905 905 906 906 906 906 907 907 907 907 908 908 908 908 909 909 909 909 910 910 910 910 911 911 911 911 912 912 912 912 913 913 913 913 914 914 914 914 915 915 915 915 916 916 916 916 917 917 917 917 918 918 918 918 919 919 919 919 920 920 920 920 921 921 921 921 -1 -1 -1 -1 922 922 922 922 923 923 923 923 924 924 924 924 925 925 925 925 926 926 926 926 927 927 927 927 928 928 928 928 929 929 929 929 930 930 930 930 931 931 931 931 932 932 932 932 933 933 933 933 934 934 934 934 935 935 935 935 936 936 936 936 937 937 937 937 938 938 938 938 939 939 939 939 940 940 940 940 941 941 941 941 942 942 942 942 943 943 943 943 944 944 944 944 945 945 945 945 946 946 946 946 947 947 947 947 948 948 948 948 949 949 949 949 950 950 950 950 951 951 951 951 952 952 952 952 953 953 953 953 954 954 954 954 955 955 955 955 956 956 956 956 957 957 957 957 958 958 958 958 959 959 959 959 960 960 960 960 961 961 961 961 962 962 962 962 963 963 963 963 964 964 964 964 965 965 965 965 966 966 966 966 967 967 967 967 968 968 968 968 969 969 969 969 970 970 970 970 971 971 971 971 972 972 972 972 973 973 973 973 974 974 974 974 975 975 975 975 976 976 976 976 977 977 977 977 978 978 978 978 979 979 979 979 980 980 980 980 981 981 981 981 982 982 982 982 983 983 983 983 984 984 984 984 985 985 985 985 986 986 986 986 987 987 987 987 988 988 988 988 989 989 989 989 990 990 990 990 991 991 991 991 992 992 992 992 993 993 993 993 994 994 994 994 995 995 995 995 996 996 996 996 997 997 997 997 998 998 998 998 999 999 999 999 1000 1000 1000 1000 1001 1001 1001 1001 1002 1002 1002 1002 1003 1003 1003 1003 1004 1004 1004 1004 1005 1005 1005 1005 1006 1006 1006 1006 1007 1007 1007 1007 1008 1008 1008 1008 1009 1009 1009 1009 1010 1010 1010 1010 1011 1011 1011 1011 1012 1012 1012 1012 1013 1013 1013 1013 1014 1014 1014 1014 1015 1015 1015 1015 1016 1016 1016 1016 1017 1017 1017 1017 1018 1018 1018 1018 1019 1019 1019 1019 1020 1020 1020 1020 1021 1021 1021 1021 1022 1022 1022 1022 1023 1023 1023 1023 -1 -1 -1 -1 1024 1024 1024 1024 1025 1025 1025 1025 1026 1026 1026 1026 1027 1027 1027 1027 1028 1028 1028 1028 1029 1029 1029 1029 1030 1030 1030 1030 1031 1031 1031 1031 1032 1032 1032 1032 1033 1033 1033 1033 1034 1034 1034 1034 1035 1035 1035 1035 1036 1036 1036 1036 1037 1037 1037 1037 1038 1038 1038 1038 1039 1039 1039 1039 1040 1040 1040 1040 1041 1041 1041 1041 1042 1042 1042 1042 1043 1043 1043 1043 1044 1044 1044 1044 1045 1045 1045 1045 1046 1046 1046 1046 1047 1047 1047 1047 1048 1048 1048 1048 1049 1049 1049 1049 1050 1050 1050 1050 1051 1051 1051 1051 1052 1052 1052 1052 1053 1053 1053 1053 1054 1054 1054 1054 1055 1055 1055 1055 1056 1056 1056 1056 1057 1057 1057 1057 1058 1058 1058 1058 1059 1059 1059 1059 1060 1060 1060 1060 1061 1061 1061 1061 1062 1062 1062 1062 1063 1063 1063 1063 1064 1064 1064 1064 1065 1065 1065 1065 1066 1066 1066 1066 1067 1067 1067 1067 1068 1068 1068 1068 1069 1069 1069 1069 1070 1070 1070 1070 1071 1071 1071 1071 1072 1072 1072 1072 1073 1073 1073 1073 1074 1074 1074 1074 1075 1075 1075 1075 1076 1076 1076 1076 1077 1077 1077 1077 1078 1078 1078 1078 1079 1079 1079 1079 1080 1080 1080 1080 1081 1081 1081 1081 1082 1082 1082 1082 1083 1083 1083 1083 1084 1084 1084 1084 -1 -1 -1 -1 1085 1085 1085 1085 1086 1086 1086 1086 1087 1087 1087 1087 1088 1088 1088 1088 1089 1089 1089 1089 1090 1090 1090 1090 1091 1091 1091 1091 1092 1092 1092 1092 1093 1093 1093 1093 1094 1094 1094 1094 1095 1095 1095 1095 1096 1096 1096 1096 1097 1097 1097 1097 1098 1098 1098 1098 1099 1099 1099 1099 1100 1100 1100 1100 1101 1101 1101 1101 1102 1102 1102 1102 1103 1103 1103 1103 1104 1104 1104 1104 1105 1105 1105 1105 1106 1106 1106 1106 1107 1107 1107 1107 1108 1108 1108 1108 1109 1109 1109 1109 1110 1110 1110 1110 1111 1111 1111 1111 1112 1112 1112 1112 1113 1113 1113 1113 1114 1114 1114 1114 1115 1115 1115 1115 1116 1116 1116 1116 1117 1117 1117 1117 1118 1118 1118 1118 1119 1119 1119 1119 1120 1120 1120 1120 1121 1121 1121 1121 1122 1122 1122 1122 1123 1123 1123 1123 1124 1124 1124 1124 1125 1125 1125 1125 1126 1126 1126 1126 1127 1127 1127 1127 1128 1128 1128 1128 1129 1129 1129 1129 1130 1130 1130 1130 1131 1131 1131 1131 1132 1132 1132 1132 1133 1133 1133 1133 1134 1134 1134 1134 1135 1135 1135 1135 1136 1136 1136 1136 1137 1137 1137 1137 1138 1138 1138 1138 1139 1139 1139 1139 1140 1140 1140 1140 1141 1141 1141 1141 1142 1142 1142 1142 1143 1143 1143 1143 1144 1144 1144 1144 1145 1145 1145 1145 1146 1146 1146 1146 1147 1147 1147 1147 1148 1148 1148 1148 1149 1149 1149 1149 1150 1150 1150 1150 1151 1151 1151 1151 1152 1152 1152 1152 1153 1153 1153 1153 1154 1154 1154 1154 1155 1155 1155 1155 1156 1156 1156 1156 1157 1157 1157 1157 1158 1158 1158 1158 1159 1159 1159 1159 1160 1160 1160 1160 1161 1161 1161 1161 1162 1162 1162 1162 1163 1163 1163 1163 1164 1164 1164 1164 1165 1165 1165 1165 1166 1166 1166 1166 1167 1167 1167 1167 -1 -1 -1 -1 1168 1168 1168 1168 1169 1169 1169 1169 1170 1170 1170 1170 1171 1171 1171 1171 1172 1172 1172 1172 1173 1173 1173 1173 1174 1174 1174 1174 1175 1175 1175 1175 1176 1176 1176 1176 1177 1177 1177 1177 1178 1178 1178 1178 1179 1179 1179 1179 1180 1180 1180 1180 1181 1181 1181 1181 1182 1182 1182 1182 -1 -1 -1 -1 1183 1183 1183 1183 1184 1184 1184 1184 1185 1185 1185 1185 1186 1186 1186 1186 1187 1187 1187 1187 1188 1188 1188 1188 1189 1189 1189 1189 1190 1190 1190 1190 1191 1191 1191 1191 1192 1192 1192 1192 1193 1193 1193 1193 1194 1194 1194 1194 1195 1195 1195 1195 1196 1196 1196 1196 1197 1197 1197 1197 1198 1198 1198 1198 1199 1199 1199 1199 1200 1200 1200 1200 1201 1201 1201 1201 1202 1202 1202 